 Gaussian 16, Revision C.01,
 Gaussian 16:  ES64L-G16RevC.01  3-Jul-2019

 ---------------------------------------------------------------------
 #p guess=read rwb97xd/gen pseudo=read scf=xqc pop=nbo7read output=wfn
 ---------------------------------------------------------------------

 -------------
 continue calc
 -------------
 Symbolic Z-matrix:
 Charge =  0 Multiplicity = 1

                         Standard orientation:
 ---------------------------------------------------------------------
 Center     Atomic      Atomic             Coordinates (Angstroms)
 Number     Number       Type             X           Y           Z
 ---------------------------------------------------------------------
      1          6           0        2.186209    2.808854    0.227090
      2          6           0        3.378542    2.541583   -0.432809
      3          6           0        3.540382    1.310487   -1.053495
      4          6           0       -1.388208    1.682278    0.259595
      5          6           0       -2.477436    2.564013    0.188057
      6          6           0       -3.637473    2.187465   -0.467516
      7          6           0       -3.718639    0.923213   -1.046680
      8          6           0       -2.660667    0.024429   -0.941591
      9          6           0       -1.492294    0.399189   -0.284110
     10          1           0        4.167072    3.285669   -0.463668
     11          1           0       -4.473283    2.875693   -0.532441
     12          1           0        4.447201    1.055938   -1.587989
     13          1           0        1.998451    3.750106    0.728543
     14          1           0       -2.763200   -0.973364   -1.349667
     15          1           0       -4.619582    0.622213   -1.571826
     16          1           0       -2.380208    3.545234    0.640365
     17         79           0        0.027588   -0.905123    0.008088
     18         17           0        1.877870   -2.410962    0.366754
     19          6           0        1.186364    1.844851    0.246592
     20          7           0        1.373227    0.641847   -0.324905
     21          6           0        2.524879    0.371970   -0.962454
     22          1           0        2.629045   -0.627030   -1.365530
     23         17           0       -1.486921   -2.580671    0.462896
     24          6           0       -0.147473    2.237018    0.854118
     25          8           0       -0.151097    3.120373    1.689100
 ---------------------------------------------------------------------

 SCF Done:  E(RwB97XD) =  -1647.72704167     A.U. after    1 cycles

 The electronic state is 1-A.
 Alpha  occ. eigenvalues -- -101.66450-101.63244 -19.30553 -14.57531 -10.43553
 Alpha  occ. eigenvalues --  -10.40973 -10.40088 -10.37729 -10.36637 -10.36532
 Alpha  occ. eigenvalues --  -10.35529 -10.33911 -10.32942 -10.32688 -10.32196
 Alpha  occ. eigenvalues --  -10.32125  -9.54777  -9.51613  -7.29511  -7.28672
 Alpha  occ. eigenvalues --   -7.28606  -7.26133  -7.25609  -7.25567  -4.38861
 Alpha  occ. eigenvalues --   -2.52183  -2.51908  -2.49219  -1.19235  -1.13634
 Alpha  occ. eigenvalues --   -0.98981  -0.97241  -0.94182  -0.89079  -0.87973
 Alpha  occ. eigenvalues --   -0.86750  -0.84361  -0.81321  -0.79551  -0.75736
 Alpha  occ. eigenvalues --   -0.72594  -0.70620  -0.66634  -0.65130  -0.62532
 Alpha  occ. eigenvalues --   -0.60381  -0.59645  -0.59147  -0.58381  -0.56953
 Alpha  occ. eigenvalues --   -0.56186  -0.54729  -0.53570  -0.52606  -0.51909
 Alpha  occ. eigenvalues --   -0.51573  -0.51195  -0.49821  -0.49536  -0.47817
 Alpha  occ. eigenvalues --   -0.46720  -0.45824  -0.44119  -0.43220  -0.42359
 Alpha  occ. eigenvalues --   -0.39945  -0.38468  -0.37507  -0.36620  -0.35726
 Alpha  occ. eigenvalues --   -0.35251  -0.34762  -0.34053  -0.33507
 Alpha virt. eigenvalues --   -0.05454  -0.04529  -0.01607   0.02376   0.04014
 Alpha virt. eigenvalues --    0.06374   0.07614   0.08514   0.09334   0.09749
 Alpha virt. eigenvalues --    0.14090   0.14869   0.15418   0.15891   0.16495

 Mulliken charges:
               1
     1  C   -0.123423
     2  C   -0.107293
     3  C   -0.138895
     4  C    0.026103
     5  C   -0.109999
     6  C   -0.130613
     7  C   -0.104799
     8  C   -0.128482
     9  C   -0.296669
    10  H    0.175292
    11  H    0.143027
    12  H    0.179015
    13  H    0.201201
    14  H    0.166877
    15  H    0.144932
    16  H    0.165657
    17  Au  -0.130053
    18  Cl  -0.153980
    19  C    0.243586
    20  N   -0.299338
    21  C    0.116896
    22  H    0.211114
    23  Cl   0.077915
    24  C    0.368218
    25  O   -0.496292
 Sum of Mulliken charges =  -0.00000

 Dipole moment (field-independent basis, Debye):
    X=              2.1051    Y=              8.4572    Z=             -4.7657  Tot=              9.9332
 Quadrupole moment (field-independent basis, Debye-Ang):
   XX=           -102.0425   YY=           -138.1290   ZZ=           -131.6804
   XY=             11.4216   XZ=             -2.4620   YZ=             -1.1351

 Summary of Natural Population Analysis:

                                     Natural Population
             Natural    ---------------------------------------------
  Atom No    Charge        Core      Valence    Rydberg      Total
 --------------------------------------------------------------------
    C  1   -0.23574      1.99997     4.22161    0.01416     6.23574
    C  2   -0.16951      1.99997     4.15490    0.01464     6.16951
    C  3   -0.26343      1.99997     4.25003    0.01343     6.26343
    C  4   -0.20034      1.99998     4.18326    0.01710     6.20034
    C  5   -0.18613      1.99998     4.17148    0.01467     6.18613
    C  6   -0.24590      1.99998     4.23132    0.01460     6.24590
    C  7   -0.20492      1.99998     4.19056    0.01439     6.20492
    C  8   -0.26267      1.99998     4.24379    0.01891     6.26267
    C  9   -0.20232      1.99997     4.16721    0.03513     6.20232
    H 10    0.27215      0.00000     0.72658    0.00126     0.72785
    H 11    0.25849      0.00000     0.74018    0.00133     0.74151
    H 12    0.27849      0.00000     0.72044    0.00108     0.72151
    H 13    0.29316      0.00000     0.70502    0.00182     0.70684
    H 14    0.27864      0.00000     0.71960    0.00176     0.72136
    H 15    0.25890      0.00000     0.73979    0.00131     0.74110
    H 16    0.27064      0.00000     0.72748    0.00189     0.72936
   Au 17    1.14462     67.99957     9.82239    0.03342    77.85538
   Cl 18   -0.64719      9.99998     7.63711    0.01010    17.64719
    C 19    0.16621      1.99997     3.80936    0.02446     5.83379
    N 20   -0.52638      1.99998     5.48826    0.03814     7.52638
    C 21    0.07227      1.99997     3.90316    0.02460     5.92773
    H 22    0.28884      0.00000     0.70885    0.00231     0.71116
   Cl 23   -0.46254      9.99997     7.44857    0.01400    17.46254
    C 24    0.57256      1.99997     3.39012    0.03735     5.42744
    O 25   -0.54791      1.99999     6.52763    0.02030     8.54791
 ====================================================================
 * Total *  0.00000    115.99916    91.62869    0.37215   208.00000

 Normal termination of Gaussian 16 at Tue Mar 14 09:25:59 2023.
